5
Properties=species:S:1:pos:R:3:forces:R:3 #Structure=T -=T energy=120.78888025941491 pbc="F F F"
C        0.00000000       0.00000000       0.00000000       0.79620616      47.87291577     -69.80050015
H       -0.41712494       0.00000000       1.00702869       0.67607023      -1.63836279      42.51746506
H        0.76368590      -0.55485029      -0.54500000       4.28277522     -23.07822965       3.97959177
H        0.76368590       0.55485029       0.54500000       8.80823078      12.78510218      19.76458723
H       -0.60932852      -0.83866876       0.33682852     -14.56185784     -35.94128298       3.53950249
5
Properties=species:S:1:pos:R:3:forces:R:3 #Structure=T -=T energy=120.1437544903694 pbc="F F F"
C        0.00000000       0.00000000       0.00000000      -3.58132832      43.45299429     -65.90581926
H       -0.41712494       0.00000000       1.00702869       5.76811681     -11.11616534      43.66550028
H        0.76368590      -0.55485029      -0.54500000       9.54001219     -24.23023420       7.55007798
H        0.76368590       0.55485029       0.54500000       6.08430198      15.98927541      15.13733555
H       -0.62298372      -0.85746353       0.25445545     -17.81019963     -24.09620009      -0.44838766
5
Properties=species:S:1:pos:R:3:forces:R:3 #Structure=T -=T energy=119.42974508503656 pbc="F F F"
C        0.00000000       0.00000000       0.00000000      -7.00971735      39.19783646     -60.77292797
H       -0.41712494       0.00000000       1.00702869      10.58412274     -19.81935400      45.87420055
H        0.76368590      -0.55485029      -0.54500000      15.08238750     -26.55947523      11.83429558
H        0.76368590       0.55485029       0.54500000       3.39897556      20.97291623       8.99914812
H       -0.63279802      -0.87097175       0.17051357     -22.05560945     -13.79239040      -5.93405195
5
Properties=species:S:1:pos:R:3:forces:R:3 #Structure=T -=T energy=118.44727597543839 pbc="F F F"
C        0.00000000       0.00000000       0.00000000      -9.45284265      35.07490132     -54.39341169
H       -0.41712494       0.00000000       1.00702869      14.30534648     -27.78876300      48.08046946
H        0.76368590      -0.55485029      -0.54500000      20.56727397     -29.69557001      16.31637716
H        0.76368590       0.55485029       0.54500000       1.21287287      27.14958977       1.98649829
H       -0.63871090      -0.87911014       0.08552041     -26.63320343      -4.74004888     -11.98917131
5
Properties=species:S:1:pos:R:3:forces:R:3 #Structure=T -=T energy=117.11060318880514 pbc="F F F"
C        0.00000000       0.00000000       0.00000000     -11.00314660      31.13317201     -47.04076129
H       -0.41712494       0.00000000       1.00702869      16.42652751     -34.89064945      49.43726586
H        0.76368590      -0.55485029      -0.54500000      25.68658509     -33.18712682      20.54645117
H        0.76368590       0.55485029       0.54500000      -0.15682987      33.75815380      -5.21042135
H       -0.64068592      -0.88182852       0.00000000     -30.96295092       3.17894052     -17.74037702
5
Properties=species:S:1:pos:R:3:forces:R:3 #Structure=T -=T energy=115.42233701152303 pbc="F F F"
C        0.00000000       0.00000000       0.00000000     -11.78591525      27.43009040     -39.12361411
H       -0.41712494       0.00000000       1.00702869      16.87391431     -41.05588304      49.54158056
H        0.76368590      -0.55485029      -0.54500000      30.28783677     -36.67429020      24.30205250
H        0.76368590       0.55485029       0.54500000      -0.64870014      40.19624002     -12.10060715
H       -0.63871090      -0.87911014      -0.08552041     -34.72400376      10.10225913     -22.61931831
5
Properties=species:S:1:pos:R:3:forces:R:3 #Structure=T -=T energy=113.43655501183787 pbc="F F F"
C        0.00000000       0.00000000       0.00000000     -11.92687404      24.03760646     -31.05154218
H       -0.41712494       0.00000000       1.00702869      15.83681916     -46.33926943      48.36178065
H        0.76368590      -0.55485029      -0.54500000      34.32092474     -39.99492817      27.55102231
H        0.76368590       0.55485029       0.54500000      -0.36325164      46.09684859     -18.44239146
H       -0.63279802      -0.87097175      -0.17051357     -37.86775372      16.20108999     -26.41958291
5
Properties=species:S:1:pos:R:3:forces:R:3 #Structure=T -=T energy=111.22481687944837 pbc="F F F"
C        0.00000000       0.00000000       0.00000000     -11.50047706      20.98193149     -23.15603240
H       -0.41712494       0.00000000       1.00702869      13.61484316     -50.83777022      46.08318863
H        0.76368590      -0.55485029      -0.54500000      37.83351204     -43.08080263      30.36494078
H        0.76368590       0.55485029       0.54500000       0.53194090      51.30695936     -24.14751896
H       -0.62298372      -0.85746353      -0.25445545     -40.47978004      21.62886062     -29.14440763
5
Properties=species:S:1:pos:R:3:forces:R:3 #Structure=T -=T energy=108.85922288655176 pbc="F F F"
C        0.00000000       0.00000000       0.00000000     -10.55521485      18.29468902     -15.68687819
H       -0.41712494       0.00000000       1.00702869      10.49264928     -54.63359421      42.95757922
H        0.76368590      -0.55485029      -0.54500000      40.88987408     -45.93315184      32.83913884
H        0.76368590       0.55485029       0.54500000       1.87207895      55.77690770     -29.20712669
H       -0.60932852      -0.83866876      -0.33682852     -42.69921339      26.49504210     -30.90232713
5
Properties=species:S:1:pos:R:3:forces:R:3 #Structure=T -=T energy=121.20556979286394 pbc="F F F"
C        0.00000000       0.00000000       0.00000000       7.41907261      46.84306960     -71.19033493
H       -0.41712494       0.00000000       1.00702869      10.27929337      -8.91735470      52.62158146
H        0.76368590      -0.55485029      -0.54500000       4.44448405     -29.10631753       9.10060735
H        0.76368590       0.55485029       0.54500000       2.19115565      21.22690674      15.51830695
H       -0.67325136      -0.78827606       0.33682852     -24.33260331     -30.04691476      -6.05077887
5
Properties=species:S:1:pos:R:3:forces:R:3 #Structure=T -=T energy=119.75127693579688 pbc="F F F"
C        0.00000000       0.00000000       0.00000000       3.18312406      41.20644306     -65.99798009
H       -0.41712494       0.00000000       1.00702869      14.29927524     -18.95529713      53.09102578
H        0.76368590      -0.55485029      -0.54500000       9.37690633     -30.45799172      12.51159701
H        0.76368590       0.55485029       0.54500000      -0.39086501      25.42402403      10.46912462
H       -0.68833908      -0.80594152       0.25445545     -26.46874615     -17.21821221     -10.07449900
5
Properties=species:S:1:pos:R:3:forces:R:3 #Structure=T -=T energy=118.24184908629259 pbc="F F F"
C        0.00000000       0.00000000       0.00000000      -0.19979310      35.80934025     -59.74172526
H       -0.41712494       0.00000000       1.00702869      17.71076441     -27.44459692      54.27589625
H        0.76368590      -0.55485029      -0.54500000      14.33253650     -32.62368198      16.20004969
H        0.76368590       0.55485029       0.54500000      -2.50034289      30.83653969       4.39036465
H       -0.69918297      -0.81863808       0.17051357     -29.34333055      -6.57843477     -15.12244144
5
Properties=species:S:1:pos:R:3:forces:R:3 #Structure=T -=T energy=116.51681504218139 pbc="F F F"
C        0.00000000       0.00000000       0.00000000      -2.73653018      30.71039683     -52.59067696
H       -0.41712494       0.00000000       1.00702869      19.88460896     -34.68919245      55.17195553
H        0.76368590      -0.55485029      -0.54500000      19.04996022     -35.25622624      19.79792123
H        0.76368590       0.55485029       0.54500000      -3.86576038      36.84754954      -2.12929567
H       -0.70571616      -0.82628746       0.08552041     -32.33204278       2.38731078     -20.24923245
5
Properties=species:S:1:pos:R:3:forces:R:3 #Structure=T -=T energy=114.52526439825012 pbc="F F F"
C        0.00000000       0.00000000       0.00000000      -4.51428619      25.97933846     -44.86451737
H       -0.41712494       0.00000000       1.00702869      20.58304556     -40.85367942      55.17224491
H        0.76368590      -0.55485029      -0.54500000      23.36884235     -38.04758546      23.08120454
H        0.76368590       0.55485029       0.54500000      -4.40100751      42.88675309      -8.59992061
H       -0.70789837      -0.82884250       0.00000000     -35.03800480      10.03736757     -24.78935038
5
Properties=species:S:1:pos:R:3:forces:R:3 #Structure=T -=T energy=112.28783913800227 pbc="F F F"
C        0.00000000       0.00000000       0.00000000      -5.63593681      21.67074160     -36.91710116
H       -0.41712494       0.00000000       1.00702869      19.87401018     -46.08650708      54.06502594
H        0.76368590      -0.55485029      -0.54500000      27.23758266     -40.80459869      25.98180530
H        0.76368590       0.55485029       0.54500000      -4.17326482      48.57269437     -14.72839652
H       -0.70571616      -0.82628746      -0.08552041     -37.30268532      16.65531686     -28.39800662
5
Properties=species:S:1:pos:R:3:forces:R:3 #Structure=T -=T energy=109.85481691345588 pbc="F F F"
C        0.00000000       0.00000000       0.00000000      -6.16759683      17.80788521     -29.05823781
H       -0.41712494       0.00000000       1.00702869      17.95932863     -50.51760962      51.89762568
H        0.76368590      -0.55485029      -0.54500000      30.66425887     -43.44242339      28.52455042
H        0.76368590       0.55485029       0.54500000      -3.31368775      53.68957008     -20.37735680
H       -0.69918297      -0.81863808      -0.17051357     -39.13993537      22.46408870     -30.98678228
5
Properties=species:S:1:pos:R:3:forces:R:3 #Structure=T -=T energy=107.29112319799482 pbc="F F F"
C        0.00000000       0.00000000       0.00000000      -6.16907515      14.42971868     -21.54198570
H       -0.41712494       0.00000000       1.00702869      15.09785681     -54.25731518      48.84759944
H        0.76368590      -0.55485029      -0.54500000      33.69652190     -45.92787217      30.77345546
H        0.76368590       0.55485029       0.54500000      -1.98393089      58.14468946     -25.48505791
H       -0.68833908      -0.80594152      -0.25445545     -40.64078953      27.61109981     -32.59415418
5
Properties=species:S:1:pos:R:3:forces:R:3 #Structure=T -=T energy=104.66381653560639 pbc="F F F"
C        0.00000000       0.00000000       0.00000000      -5.66852279      11.54371597     -14.54706788
H       -0.41712494       0.00000000       1.00702869      11.52092944     -57.39475484      45.13241781
H        0.76368590      -0.55485029      -0.54500000      36.38931599     -48.26505363      32.80285906
H        0.76368590       0.55485029       0.54500000      -0.31013475      61.91853234     -30.04861904
H       -0.67325136      -0.78827606      -0.33682852     -41.93217339      32.19670661     -33.33942015
5
Properties=species:S:1:pos:R:3:forces:R:3 #Structure=T -=T energy=120.98659356943385 pbc="F F F"
C        0.00000000       0.00000000       0.00000000      14.08723707      45.17180732     -70.52032449
H       -0.41712494       0.00000000       1.00702869      18.79920996     -15.57651835      62.32275689
H        0.76368590      -0.55485029      -0.54500000       3.52179473     -34.60692963      12.64238280
H        0.76368590       0.55485029       0.54500000      -3.20619582      29.53840391      11.46574404
H       -0.73302338      -0.73302338       0.33682852     -33.20154391     -24.52719381     -15.91173249
5
Properties=species:S:1:pos:R:3:forces:R:3 #Structure=T -=T energy=118.70294830239759 pbc="F F F"
C        0.00000000       0.00000000       0.00000000       9.81443141      38.57702043     -64.21863437
H       -0.41712494       0.00000000       1.00702869      21.28535820     -25.81234785      61.52140044
H        0.76368590      -0.55485029      -0.54500000       7.91649027     -35.85478347      15.61872312
H        0.76368590       0.55485029       0.54500000      -5.38041512      34.20125380       6.39594163
H       -0.74945061      -0.74945061       0.25445545     -33.63664683     -11.11221366     -19.31730664
5
Properties=species:S:1:pos:R:3:forces:R:3 #Structure=T -=T energy=116.43567836150707 pbc="F F F"
C        0.00000000       0.00000000       0.00000000       6.28453619      32.33767951     -57.14811389
H       -0.41712494       0.00000000       1.00702869      23.17112313     -33.92620570      61.32126345
H        0.76368590      -0.55485029      -0.54500000      12.20545252     -37.65023247      18.64002356
H        0.76368590       0.55485029       0.54500000      -6.85652295      39.60240653       0.64866145
H       -0.76125722      -0.76125722       0.17051357     -34.80481505      -0.36370784     -23.45969164
5
Properties=species:S:1:pos:R:3:forces:R:3 #Structure=T -=T energy=114.04236782024024 pbc="F F F"
C        0.00000000       0.00000000       0.00000000       3.49392537      26.53922283     -49.54750663
H       -0.41712494       0.00000000       1.00702869      23.95740269     -40.50518413      60.84035942
H        0.76368590      -0.55485029      -0.54500000      16.22703598     -39.73416662      21.48835048
H        0.76368590       0.55485029       0.54500000      -7.53621703      45.23055160      -5.31043161
H       -0.76837044      -0.76837044       0.08552041     -36.14142453       8.46987808     -27.47008128
5
Properties=species:S:1:pos:R:3:forces:R:3 #Structure=T -=T energy=111.48325557322521 pbc="F F F"
C        0.00000000       0.00000000       0.00000000       1.37872746      21.24402287     -41.71003320
H       -0.41712494       0.00000000       1.00702869      23.50810334     -45.91689614      59.61204350
H        0.76368590      -0.55485029      -0.54500000      19.90626881     -41.91032140      24.06433226
H        0.76368590       0.55485029       0.54500000      -7.45363133      50.68280013     -11.14140638
H       -0.77074639      -0.77074639       0.00000000     -37.33819662      15.89975301     -30.82522018
5
Properties=species:S:1:pos:R:3:forces:R:3 #Structure=T -=T energy=108.7754561120962 pbc="F F F"
C        0.00000000       0.00000000       0.00000000      -0.13502544      16.48500791     -33.91351456
H       -0.41712494       0.00000000       1.00702869      21.90377169     -50.41160804      57.49219758
H        0.76368590      -0.55485029      -0.54500000      23.23675773     -44.06890563      26.35832844
H        0.76368590       0.55485029       0.54500000      -6.71992795      55.70796856     -16.65304919
H       -0.76837044      -0.76837044      -0.08552041     -38.28990984      22.28077680     -33.28212812
5
Properties=species:S:1:pos:R:3:forces:R:3 #Structure=T -=T energy=105.97335036816392 pbc="F F F"
C        0.00000000       0.00000000       0.00000000      -1.09302275      12.29577227     -26.40988013
H       -0.41712494       0.00000000       1.00702869      19.32749131     -54.15953367      54.53590590
H        0.76368590      -0.55485029      -0.54500000      26.24839673     -46.15178061      28.41241398
H        0.76368590       0.55485029       0.54500000      -5.47376882      60.17314987     -21.74625780
H       -0.76125722      -0.76125722      -0.17051357     -39.01076418      27.84493162     -34.79611394
5
Properties=species:S:1:pos:R:3:forces:R:3 #Structure=T -=T energy=103.12567542688744 pbc="F F F"
C        0.00000000       0.00000000       0.00000000      -1.52886617       8.68878859     -19.35948262
H       -0.41712494       0.00000000       1.00702869      15.98712099     -57.28803405      50.88313830
H        0.76368590      -0.55485029      -0.54500000      28.97044805     -48.15458896      30.27395047
H        0.76368590       0.55485029       0.54500000      -3.84386332      64.01072529     -26.38267240
H       -0.74945061      -0.74945061      -0.25445545     -39.58712461      32.74519007     -35.41747377
5
Properties=species:S:1:pos:R:3:forces:R:3 #Structure=T -=T energy=100.2856311267342 pbc="F F F"
C        0.00000000       0.00000000       0.00000000      -1.45587122       5.67204524     -12.90902739
H       -0.41712494       0.00000000       1.00702869      12.07343780     -59.86298064      46.71151548
H        0.76368590      -0.55485029      -0.54500000      31.44390815     -50.07375913      31.99834335
H        0.76368590       0.55485029       0.54500000      -1.94418172      67.19900020     -30.54356554
H       -0.73302338      -0.73302338      -0.33682852     -40.11431109      37.06500442     -35.25802594
5
Properties=species:S:1:pos:R:3:forces:R:3 #Structure=T -=T energy=120.25190434329103 pbc="F F F"
C        0.00000000       0.00000000       0.00000000      20.34198350      43.25288889     -68.04438075
H       -0.41712494       0.00000000       1.00702869      26.20582315     -21.35032580      71.11101980
H        0.76368590      -0.55485029      -0.54500000       1.58780183     -39.33911386      14.66223930
H        0.76368590       0.55485029       0.54500000      -7.24327458      37.05818139       7.91861045
H       -0.78827606      -0.67325136       0.33682852     -40.89232060     -19.62193781     -25.64875242
5
Properties=species:S:1:pos:R:3:forces:R:3 #Structure=T -=T energy=117.15137267063503 pbc="F F F"
C        0.00000000       0.00000000       0.00000000      15.89715975      35.95222440     -60.89037142
H       -0.41712494       0.00000000       1.00702869      26.94464068     -31.62950572      68.70141830
H        0.76368590      -0.55485029      -0.54500000       5.39520716     -40.32653643      17.13701446
H        0.76368590       0.55485029       0.54500000      -8.96145444      41.84990124       3.04391107
H       -0.80594152      -0.68833908       0.25445545     -39.27581093      -5.84739396     -27.99165117
5
Properties=species:S:1:pos:R:3:forces:R:3 #Structure=T -=T energy=114.17525708829699 pbc="F F F"
C        0.00000000       0.00000000       0.00000000      12.10575894      29.10980811     -53.29130675
H       -0.41712494       0.00000000       1.00702869      27.35053488     -39.39129508      67.02060409
H        0.76368590      -0.55485029      -0.54500000       9.07207459     -41.70246323      19.56930779
H        0.76368590       0.55485029       0.54500000      -9.90167732      47.05275371      -2.29532489
H       -0.81863808      -0.69918297       0.17051357     -38.62675258       4.93141891     -31.00206763
5
Properties=species:S:1:pos:R:3:forces:R:3 #Structure=T -=T energy=111.17977578513371 pbc="F F F"
C        0.00000000       0.00000000       0.00000000       8.98255115      22.81266296     -45.49035634
H       -0.41712494       0.00000000       1.00702869      26.93024087     -45.43770075      65.24654648
H        0.76368590      -0.55485029      -0.54500000      12.52390068     -43.28402925      21.83634367
H        0.76368590       0.55485029       0.54500000     -10.07078530      52.26675712      -7.73748461
H       -0.82628746      -0.70571616       0.08552041     -38.36587835      13.64303798     -33.85458441
5
Properties=species:S:1:pos:R:3:forces:R:3 #Structure=T -=T energy=108.12086220514976 pbc="F F F"
C        0.00000000       0.00000000       0.00000000       6.48759158      17.11327744     -37.73271302
H       -0.41712494       0.00000000       1.00702869      25.54031296     -50.26105008      62.95556347
H        0.76368590      -0.55485029      -0.54500000      15.71680825     -44.94409154      23.89692553
H        0.76368590       0.55485029       0.54500000      -9.55492698      57.20009982     -13.03303751
H       -0.82884250      -0.70789837       0.00000000     -38.18795569      20.89006409     -36.08493178
5
Properties=species:S:1:pos:R:3:forces:R:3 #Structure=T -=T energy=105.01138651644116 pbc="F F F"
C        0.00000000       0.00000000       0.00000000       4.57155482      12.04235199     -30.23392908
H       -0.41712494       0.00000000       1.00702869      23.22623737     -54.16940838      60.00344000
H        0.76368590      -0.55485029      -0.54500000      18.66065662     -46.60916080      25.76420282
H        0.76368590       0.55485029       0.54500000      -8.48080620      61.67900504     -18.04377233
H       -0.82628746      -0.70571616      -0.08552041     -37.97853332      27.06175339     -37.48961472
5
Properties=species:S:1:pos:R:3:forces:R:3 #Structure=T -=T energy=101.88962070964462 pbc="F F F"
C        0.00000000       0.00000000       0.00000000       3.19971439       7.61311553     -23.17092334
H       -0.41712494       0.00000000       1.00702869      20.13094844     -57.36327880      56.41036076
H        0.76368590      -0.55485029      -0.54500000      21.38077921     -48.24955296      27.47699622
H        0.76368590       0.55485029       0.54500000      -6.97298427      65.60289155     -22.68796821
H       -0.81863808      -0.69918297      -0.17051357     -37.73658575      32.40056478     -38.02725475
5
Properties=species:S:1:pos:R:3:forces:R:3 #Structure=T -=T energy=98.79971241420552 pbc="F F F"
C        0.00000000       0.00000000       0.00000000       2.35117733       3.84267116     -16.66759169
H       -0.41712494       0.00000000       1.00702869      16.41676038     -59.97164286      52.28293883
H        0.76368590      -0.55485029      -0.54500000      23.90269659     -49.85536669      29.07155422
H        0.76368590       0.55485029       0.54500000      -5.14619831      68.92111647     -26.93369989
H       -0.80594152      -0.68833908      -0.25445545     -37.52109990      37.05805058     -37.74996487
5
Properties=species:S:1:pos:R:3:forces:R:3 #Structure=T -=T energy=95.79914294308682 pbc="F F F"
C        0.00000000       0.00000000       0.00000000       2.02050234       0.75698326     -10.82705762
H       -0.41712494       0.00000000       1.00702869      12.23526400     -62.07199135      47.76418304
H        0.76368590      -0.55485029      -0.54500000      26.25915700     -51.42892423      30.59454984
H        0.76368590       0.55485029       0.54500000      -3.09806549      71.62837969     -30.76258165
H       -0.78827606      -0.67325136      -0.33682852     -37.41776569      41.11815297     -36.76763266
5
Properties=species:S:1:pos:R:3:forces:R:3 #Structure=T -=T energy=119.13406724092661 pbc="F F F"
C        0.00000000       0.00000000       0.00000000      25.90851656      41.39008499     -64.06430241
H       -0.41712494       0.00000000       1.00702869      32.73190302     -26.40257365      78.83982226
H        0.76368590      -0.55485029      -0.54500000      -1.11370889     -43.26558583      15.41822718
H        0.76368590       0.55485029       0.54500000     -10.03543967      43.51771238       4.92378412
H       -0.83866876      -0.60932852       0.33682852     -47.49123797     -15.24010850     -35.11825745
5
Properties=species:S:1:pos:R:3:forces:R:3 #Structure=T -=T energy=115.24079700540085 pbc="F F F"
C        0.00000000       0.00000000       0.00000000      21.20939455      33.59273064     -56.30003278
H       -0.41712494       0.00000000       1.00702869      31.62373577     -36.64750771      74.68089121
H        0.76368590      -0.55485029      -0.54500000       2.14581918     -43.93897272      17.42225361
H        0.76368590       0.55485029       0.54500000     -11.35405668      48.26803832       0.32896361
H       -0.85746353      -0.62298372       0.25445545     -43.62442410      -1.27604441     -36.13187710
5
Properties=species:S:1:pos:R:3:forces:R:3 #Structure=T -=T energy=111.60097480952278 pbc="F F F"
C        0.00000000       0.00000000       0.00000000      17.09910866      26.33130563     -48.40187191
H       -0.41712494       0.00000000       1.00702869      30.61445119     -44.10228622      71.54477571
H        0.76368590      -0.55485029      -0.54500000       5.30380946     -44.91290059      19.37088404
H        0.76368590       0.55485029       0.54500000     -11.88612608      53.21574930      -4.60730669
H       -0.87097175      -0.63279802       0.17051357     -41.13123891       9.46802272     -37.90628046
5
Properties=species:S:1:pos:R:3:forces:R:3 #Structure=T -=T energy=108.05598250023716 pbc="F F F"
C        0.00000000       0.00000000       0.00000000      13.61231307      19.68815532     -40.58885794
H       -0.41712494       0.00000000       1.00702869      29.11778929     -49.71676358      68.59418953
H        0.76368590      -0.55485029      -0.54500000       8.30317466     -46.05703375      21.19411367
H        0.76368590       0.55485029       0.54500000     -11.69342395      58.04527525      -9.59633820
H       -0.87911014      -0.63871090       0.08552041     -39.34102257      18.04066459     -39.60318699
5
Properties=species:S:1:pos:R:3:forces:R:3 #Structure=T -=T energy=104.54935976965675 pbc="F F F"
C        0.00000000       0.00000000       0.00000000      10.73106864      13.70949663     -33.05553169
H       -0.41712494       0.00000000       1.00702869      26.92164577     -54.06264923      65.38539435
H        0.76368590      -0.55485029      -0.54500000      11.12821164     -47.28450195      22.87677382
H        0.76368590       0.55485029       0.54500000     -10.88486348      62.53720758     -14.44205557
H       -0.88182852      -0.64068592       0.00000000     -37.89568791      25.09969437     -40.76265117
5
Properties=species:S:1:pos:R:3:forces:R:3 #Structure=T -=T energy=101.08265465338087 pbc="F F F"
C        0.00000000       0.00000000       0.00000000       8.41977344       8.42073207     -25.95765410
H       -0.41712494       0.00000000       1.00702869      24.01334101     -57.48948490      61.73499109
H        0.76368590      -0.55485029      -0.54500000      13.78913701     -48.54558883      24.43885591
H        0.76368590       0.55485029       0.54500000      -9.58211939      66.55777111     -19.03527103
H       -0.87911014      -0.63871090      -0.08552041     -36.64141969      31.05423015     -41.18163810
5
Properties=species:S:1:pos:R:3:forces:R:3 #Structure=T -=T energy=97.68562562583517 pbc="F F F"
C        0.00000000       0.00000000       0.00000000       6.65951458       3.83957617     -19.42272909
H       -0.41712494       0.00000000       1.00702869      20.49009335     -60.21431130      57.63018091
H        0.76368590      -0.55485029      -0.54500000      16.30943675     -49.81813890      25.91214341
H        0.76368590       0.55485029       0.54500000      -7.90745876      70.03434556     -23.30541415
H       -0.87097175      -0.63279802      -0.17051357     -35.54931042      36.16025769     -40.81532325
5
Properties=species:S:1:pos:R:3:forces:R:3 #Structure=T -=T energy=94.39558946777164 pbc="F F F"
C        0.00000000       0.00000000       0.00000000       5.43443503      -0.02357611     -13.53748459
H       -0.41712494       0.00000000       1.00702869      16.47166389     -62.36861193      53.13176578
H        0.76368590      -0.55485029      -0.54500000      18.70665190     -51.09929536      27.33141697
H        0.76368590       0.55485029       0.54500000      -5.95836248      72.92821878     -27.22260944
H       -0.85746353      -0.62298372      -0.25445545     -34.65120120      40.56583953     -39.70257995
5
Properties=species:S:1:pos:R:3:forces:R:3 #Structure=T -=T energy=91.2558748578404 pbc="F F F"
C        0.00000000       0.00000000       0.00000000       4.75059945      -3.16715858      -8.35514190
H       -0.41712494       0.00000000       1.00702869      12.08963757     -64.04302786      48.34863497
H        0.76368590      -0.55485029      -0.54500000      20.99841080     -52.38900337      28.72444289
H        0.76368590       0.55485029       0.54500000      -3.82169113      75.23387050     -30.76670983
H       -0.83866876      -0.60932852      -0.33682852     -34.01902454      44.36343123     -37.95397104
5
Properties=species:S:1:pos:R:3:forces:R:3 #Structure=T -=T energy=117.74769730101829 pbc="F F F"
C        0.00000000       0.00000000       0.00000000      30.65583816      39.77915105     -58.84782526
H       -0.41712494       0.00000000       1.00702869      38.62085453     -31.07175824      85.53899068
H        0.76368590      -0.55485029      -0.54500000      -4.31367996     -46.43524325      15.19109944
H        0.76368590       0.55485029       0.54500000     -11.76588739      48.87527310       2.41051515
H       -0.88389079      -0.54164897       0.33682852     -53.19668784     -11.14826066     -44.29259647
5
Properties=species:S:1:pos:R:3:forces:R:3 #Structure=T -=T energy=113.08858484649376 pbc="F F F"
C        0.00000000       0.00000000       0.00000000      25.65867106      31.65639911     -50.67588296
H       -0.41712494       0.00000000       1.00702869      35.60294828     -41.17462313      79.59834334
H        0.76368590      -0.55485029      -0.54500000      -1.53216797     -46.79110218      16.78161254
H        0.76368590       0.55485029       0.54500000     -12.76919436      53.50571464      -1.88185711
H       -0.90369900      -0.55378746       0.25445545     -46.95954163       2.80170826     -43.82238406
5
Properties=species:S:1:pos:R:3:forces:R:3 #Structure=T -=T energy=108.82345918770709 pbc="F F F"
C        0.00000000       0.00000000       0.00000000      21.20669670      24.12452735     -42.65816508
H       -0.41712494       0.00000000       1.00702869      33.22189738     -48.31770598      75.07421039
H        0.76368590      -0.55485029      -0.54500000       1.19854841     -47.40079053      18.33836675
H        0.76368590       0.55485029       0.54500000     -13.00714399      58.19169281      -6.44248344
H       -0.91793560      -0.56251166       0.17051357     -42.62042072      13.40185448     -44.31244564
5